{
  "(0, 0, 2)": "Astatine",
  "(1, 0, 1)": "Pronunciation",
  "(1, 1, 1)": "/ˈæstətiːn, -tɪn/ ​(AS-tə-teen, -⁠tin)",
  "(2, 0, 1)": "Appearance",
  "(2, 1, 1)": "unknown, probably metallic",
  "(3, 0, 1)": "Mass number",
  "(3, 1, 1)": "210 (most stable isotope)",
  "(4, 0, 1)": "Atomic number (Z)",
  "(4, 1, 1)": "85",
  "(5, 0, 1)": "Group",
  "(5, 1, 1)": "group 17 (halogens)",
  "(6, 0, 1)": "Period",
  "(6, 1, 1)": "period 6 ",
  "(7, 0, 1)": "Block",
  "(7, 1, 1)": "p-block ",
  "(8, 0, 1)": "Element category",
  "(8, 1, 1)": "  Metalloid, sometimes classified as a nonmetal, or a metal",
  "(9, 0, 1)": "Electron configuration",
  "(9, 1, 1)": "[Xe] 4f14 5d10 6s2 6p5",
  "(10, 0, 1)": "Electrons per shell",
  "(10, 1, 1)": "2, 8, 18, 32, 18, 7",
  "(11, 0, 1)": "Phase at STP",
  "(11, 1, 1)": "solid",
  "(12, 0, 1)": "Boiling point",
  "(12, 1, 1)": "(At2) 503±3 K ​(230±3 °C, ​445±5 °F) (estimated)",
  "(13, 0, 1)": "Density (near r.t.)",
  "(13, 1, 1)": "(At2) 6.35±0.15 g/cm3 (predicted)",
  "(14, 0, 1)": "Molar volume",
  "(14, 1, 1)": "(At2) 32.94 cm3/mol (predicted)",
  "(15, 0, 1)": "Heat of vaporization",
  "(15, 1, 1)": "(At2) 54.39 kJ/mol ",
  "(16, 0, 1)": "Oxidation states",
  "(16, 1, 1)": "−1, +1, +3, +5, +7",
  "(17, 0, 1)": "Electronegativity",
  "(17, 1, 1)": "Pauling scale: 2.2 ",
  "(18, 0, 1)": "Ionization energies",
  "(18, 1, 1)": "1st: 899.003 kJ/mol ,  , ",
  "(19, 0, 1)": "Covalent radius",
  "(19, 1, 1)": "150 pm ",
  "(20, 0, 1)": "Van der Waals radius",
  "(20, 1, 1)": "202 pm ",
  "(21, 0, 1)": "Natural occurrence",
  "(21, 1, 1)": "from decay",
  "(22, 0, 1)": "Thermal conductivity",
  "(22, 1, 1)": "1.7 W/(m·K) ",
  "(23, 0, 1)": "CAS Number",
  "(23, 1, 1)": "7440-68-8 ",
  "(24, 0, 1)": "Naming",
  "(24, 1, 1)": "after Greek astatos (αστατος), meaning \"unstable\"",
  "(25, 0, 1)": "Discovery",
  "(25, 1, 1)": "Dale R. Corson, Kenneth Ross MacKenzie, Emilio Segrè (1940)"
}