{
  "(0, 0, 2)": "Bromine",
  "(1, 0, 1)": "Pronunciation",
  "(1, 1, 1)": "/ˈbroʊmiːn, -mɪn, -maɪn/ ​(BROH-meen, -⁠min, -⁠myn)",
  "(2, 0, 1)": "Appearance",
  "(2, 1, 1)": "reddish-brown",
  "(3, 0, 1)": "Standard atomic weight Ar, std(Br)",
  "(3, 1, 1)": "[79.901, 79.907] conventional: 79.904",
  "(4, 0, 1)": "Atomic number (Z)",
  "(4, 1, 1)": "35",
  "(5, 0, 1)": "Group",
  "(5, 1, 1)": "group 17 (halogens)",
  "(6, 0, 1)": "Period",
  "(6, 1, 1)": "period 4 ",
  "(7, 0, 1)": "Block",
  "(7, 1, 1)": "p-block ",
  "(8, 0, 1)": "Element category",
  "(8, 1, 1)": "  Reactive nonmetal",
  "(9, 0, 1)": "Electron configuration",
  "(9, 1, 1)": "[Ar] 3d10 4s2 4p5",
  "(10, 0, 1)": "Electrons per shell",
  "(10, 1, 1)": "2, 8, 18, 7",
  "(11, 0, 1)": "Phase at STP",
  "(11, 1, 1)": "liquid",
  "(12, 0, 1)": "Melting point",
  "(12, 1, 1)": "(Br2) 265.8 K ​(−7.2 °C, ​19 °F) ",
  "(13, 0, 1)": "Boiling point",
  "(13, 1, 1)": "(Br2) 332.0 K ​(58.8 °C, ​137.8 °F) ",
  "(14, 0, 1)": "Density (near r.t.)",
  "(14, 1, 1)": "Br2, liquid: 3.1028 g/cm3",
  "(15, 0, 1)": "Triple point",
  "(15, 1, 1)": "265.90 K, ​5.8 kPa ",
  "(16, 0, 1)": "Critical point",
  "(16, 1, 1)": "588 K, 10.34 MPa ",
  "(17, 0, 1)": "Heat of fusion",
  "(17, 1, 1)": "(Br2) 10.571 kJ/mol ",
  "(18, 0, 1)": "Heat of vaporisation",
  "(18, 1, 1)": "(Br2) 29.96 kJ/mol ",
  "(19, 0, 1)": "Molar heat capacity",
  "(19, 1, 1)": "(Br2) 75.69 J/(mol·K) ",
  "(20, 0, 1)": "Oxidation states",
  "(20, 1, 1)": "−1, +1, +3, +4, +5, +7 (a strongly acidic oxide)",
  "(21, 0, 1)": "Electronegativity",
  "(21, 1, 1)": "Pauling scale: 2.96 ",
  "(22, 0, 1)": "Ionisation energies",
  "(22, 1, 1)": "1st: 1139.9 kJ/mol , 2nd: 2103 kJ/mol , 3rd: 3470 kJ/mol ,  , ",
  "(23, 0, 1)": "Atomic radius",
  "(23, 1, 1)": "empirical: 120 pm ",
  "(24, 0, 1)": "Covalent radius",
  "(24, 1, 1)": "120±3 pm ",
  "(25, 0, 1)": "Van der Waals radius",
  "(25, 1, 1)": "185 pm ",
  "(26, 0, 1)": "Natural occurrence",
  "(26, 1, 1)": "primordial",
  "(27, 0, 1)": "Speed of sound",
  "(27, 1, 1)": "206 m/s (at 20 °C)",
  "(28, 0, 1)": "Thermal conductivity",
  "(28, 1, 1)": "0.122 W/(m·K) ",
  "(29, 0, 1)": "Electrical resistivity",
  "(29, 1, 1)": "7.8×1010 Ω·m (at 20 °C) ",
  "(30, 0, 1)": "Magnetic ordering",
  "(30, 1, 1)": "diamagnetic ",
  "(31, 0, 1)": "Magnetic susceptibility",
  "(31, 1, 1)": "−56.4·10−6 cm3/mol",
  "(32, 0, 1)": "CAS Number",
  "(32, 1, 1)": "7726-95-6 ",
  "(33, 0, 1)": "Discovery and first isolation",
  "(33, 1, 1)": "Antoine Jérôme Balard and Carl Jacob Löwig (1825)"
}