{
  "(0, 0, 2)": "Cerium",
  "(1, 0, 1)": "Pronunciation",
  "(1, 1, 1)": "/ˈsɪəriəm/ ​(SEER-ee-əm)",
  "(2, 0, 1)": "Appearance",
  "(2, 1, 1)": "silvery white",
  "(3, 0, 1)": "Standard atomic weight Ar, std(Ce)",
  "(3, 1, 1)": "140.116(1)",
  "(4, 0, 1)": "Atomic number (Z)",
  "(4, 1, 1)": "58",
  "(5, 0, 1)": "Group",
  "(5, 1, 1)": "group n/a",
  "(6, 0, 1)": "Period",
  "(6, 1, 1)": "period 6",
  "(7, 0, 1)": "Block",
  "(7, 1, 1)": "f-block",
  "(8, 0, 1)": "Element category",
  "(8, 1, 1)": "Lanthanide",
  "(9, 0, 1)": "Electron configuration",
  "(9, 1, 1)": "[Xe] 4f1 5d1 6s2",
  "(10, 0, 1)": "Electrons per shell",
  "(10, 1, 1)": "2, 8, 18, 19, 9, 2",
  "(11, 0, 1)": "Phase at STP",
  "(11, 1, 1)": "solid",
  "(12, 0, 1)": "Melting point",
  "(12, 1, 1)": "1068 K ​(795 °C, ​1463 °F)",
  "(13, 0, 1)": "Boiling point",
  "(13, 1, 1)": "3716 K ​(3443 °C, ​6229 °F)",
  "(14, 0, 1)": "Density (near r.t.)",
  "(14, 1, 1)": "6.770 g/cm3",
  "(15, 0, 1)": "when liquid (at m.p.)",
  "(15, 1, 1)": "6.55 g/cm3",
  "(16, 0, 1)": "Heat of fusion",
  "(16, 1, 1)": "5.46 kJ/mol",
  "(17, 0, 1)": "Heat of vaporization",
  "(17, 1, 1)": "398 kJ/mol",
  "(18, 0, 1)": "Molar heat capacity",
  "(18, 1, 1)": "26.94 J/(mol·K)",
  "(19, 0, 1)": "Oxidation states",
  "(19, 1, 1)": "+1, +2, +3, +4 (a mildly basic oxide)",
  "(20, 0, 1)": "Electronegativity",
  "(20, 1, 1)": "Pauling scale: 1.12",
  "(21, 0, 1)": "Ionization energies",
  "(21, 1, 1)": "1st: 534.4 kJ/mol , 2nd: 1050 kJ/mol , 3rd: 1949 kJ/mol , (more)",
  "(22, 0, 1)": "Atomic radius",
  "(22, 1, 1)": "empirical: 181.8 pm",
  "(23, 0, 1)": "Covalent radius",
  "(23, 1, 1)": "204±9 pm",
  "(24, 0, 1)": "Natural occurrence",
  "(24, 1, 1)": "primordial",
  "(25, 0, 1)": "Speed of sound thin rod",
  "(25, 1, 1)": "2100 m/s (at 20 °C)",
  "(26, 0, 1)": "Thermal expansion",
  "(26, 1, 1)": "γ, poly: 6.3 µm/(m·K) (at r.t.)",
  "(27, 0, 1)": "Thermal conductivity",
  "(27, 1, 1)": "11.3 W/(m·K)",
  "(28, 0, 1)": "Electrical resistivity",
  "(28, 1, 1)": "β, poly: 828 nΩ·m (at r.t.)",
  "(29, 0, 1)": "Magnetic ordering",
  "(29, 1, 1)": "paramagnetic",
  "(30, 0, 1)": "Magnetic susceptibility",
  "(30, 1, 1)": "(β) +2450.0·10−6 cm3/mol (293 K)",
  "(31, 0, 1)": "Young's modulus",
  "(31, 1, 1)": "γ form: 33.6 GPa",
  "(32, 0, 1)": "Shear modulus",
  "(32, 1, 1)": "γ form: 13.5 GPa",
  "(33, 0, 1)": "Bulk modulus",
  "(33, 1, 1)": "γ form: 21.5 GPa",
  "(34, 0, 1)": "Poisson ratio",
  "(34, 1, 1)": "γ form: 0.24",
  "(35, 0, 1)": "Mohs hardness",
  "(35, 1, 1)": "2.5",
  "(36, 0, 1)": "Vickers hardness",
  "(36, 1, 1)": "210-470 MPa",
  "(37, 0, 1)": "Brinell hardness",
  "(37, 1, 1)": "186-412 MPa",
  "(38, 0, 1)": "CAS Number",
  "(38, 1, 1)": "7440-45-1",
  "(39, 0, 1)": "Naming",
  "(39, 1, 1)": "after dwarf planet Ceres, itself named after Roman deity of agriculture Ceres",
  "(40, 0, 1)": "Discovery",
  "(40, 1, 1)": "Martin Heinrich Klaproth, Jöns Jakob Berzelius, Wilhelm Hisinger (1803)",
  "(41, 0, 1)": "First isolation",
  "(41, 1, 1)": "Carl Gustaf Mosander (1838)"
}