{
  "(0, 0, 2)": "Oxygen",
  "(1, 0, 1)": "Allotropes",
  "(1, 1, 1)": "O2, O3 (Ozone)",
  "(2, 0, 1)": "Appearance",
  "(2, 1, 1)": "gas: colorless, liquid and solid: pale blue",
  "(3, 0, 1)": "Standard atomic weight Ar, std(O)",
  "(3, 1, 1)": "[15.99903, 15.99977] conventional: 15.999",
  "(4, 0, 1)": "Atomic number (Z)",
  "(4, 1, 1)": "8",
  "(5, 0, 1)": "Group",
  "(5, 1, 1)": "group 16 (chalcogens)",
  "(6, 0, 1)": "Period",
  "(6, 1, 1)": "period 2",
  "(7, 0, 1)": "Block",
  "(7, 1, 1)": "p-block",
  "(8, 0, 1)": "Element category",
  "(8, 1, 1)": "Reactive nonmetal",
  "(9, 0, 1)": "Electron configuration",
  "(9, 1, 1)": "[He] 2s2 2p4",
  "(10, 0, 1)": "Electrons per shell",
  "(10, 1, 1)": "2, 6",
  "(11, 0, 1)": "Phase at STP",
  "(11, 1, 1)": "gas",
  "(12, 0, 1)": "Melting point",
  "(12, 1, 1)": "(O2) 54.36 K  ( 218.79 C,  361.82 F)",
  "(13, 0, 1)": "Boiling point",
  "(13, 1, 1)": "(O2) 90.188 K  ( 182.962 C,  297.332 F)",
  "(14, 0, 1)": "Density (at STP)",
  "(14, 1, 1)": "1.429 g/L",
  "(15, 0, 1)": "when liquid (at b.p.)",
  "(15, 1, 1)": "1.141 g/cm3",
  "(16, 0, 1)": "Triple point",
  "(16, 1, 1)": "54.361 K,  0.1463 kPa",
  "(17, 0, 1)": "Critical point",
  "(17, 1, 1)": "154.581 K, 5.043 MPa",
  "(18, 0, 1)": "Heat of fusion",
  "(18, 1, 1)": "(O2) 0.444 kJ/mol",
  "(19, 0, 1)": "Heat of vaporization",
  "(19, 1, 1)": "(O2) 6.82 kJ/mol",
  "(20, 0, 1)": "Molar heat capacity",
  "(20, 1, 1)": "(O2) 29.378 J/(mol K)",
  "(21, 0, 1)": "Oxidation states",
  "(21, 1, 1)": "2,  1, 0, +1, +2",
  "(22, 0, 1)": "Electronegativity",
  "(22, 1, 1)": "Pauling scale: 3.44",
  "(23, 0, 1)": "Ionization energies",
  "(23, 1, 1)": "1st: 1313.9 kJ/mol , 2nd: 3388.3 kJ/mol , 3rd: 5300.5 kJ/mol , (more) ",
  "(24, 0, 1)": "Covalent radius",
  "(24, 1, 1)": "66 2 pm",
  "(25, 0, 1)": "Van der Waals radius",
  "(25, 1, 1)": "152 pm"
}