{
  "(0, 0, 2)": "Sodium",
  "(1, 0, 1)": "Appearance",
  "(1, 1, 1)": "silvery white metallic",
  "(2, 0, 1)": "Standard atomic weight Ar, std(Na)",
  "(2, 1, 1)": "22.98976928(2)",
  "(3, 0, 1)": "Atomic number (Z)",
  "(3, 1, 1)": "11",
  "(4, 0, 1)": "Group",
  "(4, 1, 1)": "group 1: H and alkali metals",
  "(5, 0, 1)": "Period",
  "(5, 1, 1)": "period 3",
  "(6, 0, 1)": "Block",
  "(6, 1, 1)": "s-block",
  "(7, 0, 1)": "Element category",
  "(7, 1, 1)": "Alkali metal",
  "(8, 0, 1)": "Electron configuration",
  "(8, 1, 1)": "[Ne] 3s1",
  "(9, 0, 1)": "Electrons per shell",
  "(9, 1, 1)": "2, 8, 1",
  "(10, 0, 1)": "Phase at STP",
  "(10, 1, 1)": "solid",
  "(11, 0, 1)": "Melting point",
  "(11, 1, 1)": "370.944 K ​(97.794 °C, ​208.029 °F)",
  "(12, 0, 1)": "Boiling point",
  "(12, 1, 1)": "1156.090 K ​(882.940 °C, ​1621.292 °F)",
  "(13, 0, 1)": "Density (near r.t.)",
  "(13, 1, 1)": "0.968 g/cm3",
  "(14, 0, 1)": "when liquid (at m.p.)",
  "(14, 1, 1)": "0.927 g/cm3",
  "(15, 0, 1)": "Critical point",
  "(15, 1, 1)": "2573 K, 35 MPa (extrapolated)",
  "(16, 0, 1)": "Heat of fusion",
  "(16, 1, 1)": "2.60 kJ/mol",
  "(17, 0, 1)": "Heat of vaporization",
  "(17, 1, 1)": "97.42 kJ/mol",
  "(18, 0, 1)": "Molar heat capacity",
  "(18, 1, 1)": "28.230 J/(mol·K)",
  "(19, 0, 1)": "Oxidation states",
  "(19, 1, 1)": "−1, +1 (a strongly basic oxide)",
  "(20, 0, 1)": "Electronegativity",
  "(20, 1, 1)": "Pauling scale: 0.93",
  "(21, 0, 1)": "Ionization energies",
  "(21, 1, 1)": "1st: 495.8 kJ/mol , 2nd: 4562 kJ/mol , 3rd: 6910.3 kJ/mol , (more)",
  "(22, 0, 1)": "Atomic radius",
  "(22, 1, 1)": "empirical: 186 pm",
  "(23, 0, 1)": "Covalent radius",
  "(23, 1, 1)": "166±9 pm",
  "(24, 0, 1)": "Van der Waals radius",
  "(24, 1, 1)": "227 pm",
  "(25, 0, 1)": "Natural occurrence",
  "(25, 1, 1)": "primordial",
  "(26, 0, 1)": "Speed of sound thin rod",
  "(26, 1, 1)": "3200 m/s (at 20 °C)",
  "(27, 0, 1)": "Thermal expansion",
  "(27, 1, 1)": "71 µm/(m·K) (at 25 °C)",
  "(28, 0, 1)": "Thermal conductivity",
  "(28, 1, 1)": "142 W/(m·K)",
  "(29, 0, 1)": "Electrical resistivity",
  "(29, 1, 1)": "47.7 nΩ·m (at 20 °C)",
  "(30, 0, 1)": "Magnetic ordering",
  "(30, 1, 1)": "paramagnetic",
  "(31, 0, 1)": "Magnetic susceptibility",
  "(31, 1, 1)": "+16.0·10−6 cm3/mol (298 K)",
  "(32, 0, 1)": "Young's modulus",
  "(32, 1, 1)": "10 GPa",
  "(33, 0, 1)": "Shear modulus",
  "(33, 1, 1)": "3.3 GPa",
  "(34, 0, 1)": "Bulk modulus",
  "(34, 1, 1)": "6.3 GPa",
  "(35, 0, 1)": "Mohs hardness",
  "(35, 1, 1)": "0.5",
  "(36, 0, 1)": "Brinell hardness",
  "(36, 1, 1)": "0.69 MPa",
  "(37, 0, 1)": "CAS Number",
  "(37, 1, 1)": "7440-23-5",
  "(38, 0, 1)": "Discovery and first isolation",
  "(38, 1, 1)": "Humphry Davy (1807)"
}