{
  "(0, 0, 2)": "Hydrogen, 1H",
  "(1, 0, 1)": "Appearance",
  "(1, 1, 1)": "colorless gas",
  "(2, 0, 1)": "Standard atomic weight Ar, std(H)",
  "(2, 1, 1)": "[1.00784, 1.00811] conventional: 1.008",
  "(3, 0, 1)": "Atomic number (Z)",
  "(3, 1, 1)": "1",
  "(4, 0, 1)": "Group",
  "(4, 1, 1)": "1: H and alkali metals",
  "(5, 0, 1)": "Period",
  "(5, 1, 1)": "period 1",
  "(6, 0, 1)": "Block",
  "(6, 1, 1)": "s-block",
  "(7, 0, 1)": "Element category",
  "(7, 1, 1)": "Reactive nonmetal",
  "(8, 0, 1)": "Electron configuration",
  "(8, 1, 1)": "1s1",
  "(9, 0, 1)": "Electrons per shell",
  "(9, 1, 1)": "1",
  "(10, 0, 1)": "Phase at STP",
  "(10, 1, 1)": "gas",
  "(11, 0, 1)": "Melting point",
  "(11, 1, 1)": "(H2) 13.99 K  ( 259.16 C,  434.49 F)",
  "(12, 0, 1)": "Boiling point",
  "(12, 1, 1)": "(H2) 20.271 K  ( 252.879 C,  423.182 F)",
  "(13, 0, 1)": "Density (at STP)",
  "(13, 1, 1)": "0.08988 g/L",
  "(14, 0, 1)": "when liquid (at m.p.)",
  "(14, 1, 1)": "0.07 g/cm3 (solid: 0.0763 g/cm3)",
  "(15, 0, 1)": "when liquid (at b.p.)",
  "(15, 1, 1)": "0.07099 g/cm3",
  "(16, 0, 1)": "Triple point",
  "(16, 1, 1)": "13.8033 K,  7.041 kPa",
  "(17, 0, 1)": "Critical point",
  "(17, 1, 1)": "32.938 K, 1.2858 MPa",
  "(18, 0, 1)": "Heat of fusion",
  "(18, 1, 1)": "(H2) 0.117 kJ/mol",
  "(19, 0, 1)": "Heat of vaporization",
  "(19, 1, 1)": "(H2) 0.904 kJ/mol",
  "(20, 0, 1)": "Molar heat capacity",
  "(20, 1, 1)": "(H2) 28.836 J/(mol K)",
  "(21, 0, 1)": "Oxidation states",
  "(21, 1, 1)": "1, +1 (an amphoteric oxide)",
  "(22, 0, 1)": "Electronegativity",
  "(22, 1, 1)": "Pauling scale: 2.20",
  "(23, 0, 1)": "Ionization energies",
  "(23, 1, 1)": "1st: 1312.0 kJ/mol ,",
  "(24, 0, 1)": "Covalent radius",
  "(24, 1, 1)": "31 5 pm",
  "(25, 0, 1)": "Van der Waals radius",
  "(25, 1, 1)": "120 pm",
  "(26, 0, 1)": "Natural occurrence",
  "(26, 1, 1)": "primordial",
  "(27, 0, 1)": "Speed of sound",
  "(27, 1, 1)": "1310 m/s (gas, 27 C)",
  "(28, 0, 1)": "Thermal conductivity",
  "(28, 1, 1)": "0.1805 W/(m K)",
  "(29, 0, 1)": "Magnetic ordering",
  "(29, 1, 1)": "diamagnetic",
  "(30, 0, 1)": "Magnetic susceptibility",
  "(30, 1, 1)": "3.98 10 6 cm3/mol (298 K)",
  "(31, 0, 1)": "CAS Number",
  "(31, 1, 1)": "12385-13-6 , 1333-74-0 (H2)",
  "(32, 0, 1)": "Discovery",
  "(32, 1, 1)": "Henry Cavendish (1766)",
  "(33, 0, 1)": "Named by",
  "(33, 1, 1)": "Antoine Lavoisier (1783)"
}