{
  "(0, 0, 2)": "Argon",
  "(1, 0, 1)": "Pronunciation",
  "(1, 1, 1)": "/ ˈɑːrɡɒn/ ​ ( AR-gon ) ",
  "(2, 0, 1)": "Appearance",
  "(2, 1, 1)": "colorless gas exhibiting a lilac/violet glow when placed in an electric field",
  "(3, 0, 1)": "Standard atomic weight Ar, std(Ar) ",
  "(3, 1, 1)": "[ 39.792 ,  39.963 ] conventional:  39.95 ",
  "(4, 0, 1)": "Atomic number  ( Z) ",
  "(4, 1, 1)": "18",
  "(5, 0, 1)": "Group",
  "(5, 1, 1)": "group 18 (noble gases)",
  "(6, 0, 1)": "Period",
  "(6, 1, 1)": "period 3 ",
  "(7, 0, 1)": "Block",
  "(7, 1, 1)": "p-block ",
  "(8, 0, 1)": "Element category",
  "(8, 1, 1)": " Noble gas ",
  "(9, 0, 1)": "Electron configuration",
  "(9, 1, 1)": "[Ne] 3s 2 3p 6",
  "(10, 0, 1)": "Electrons per shell",
  "(10, 1, 1)": "2, 8, 8",
  "(11, 0, 1)": "Phase  at  STP",
  "(11, 1, 1)": "gas",
  "(12, 0, 1)": "Melting point",
  "(12, 1, 1)": "83.81 K ​(−189.34 °C, ​−308.81 °F) ",
  "(13, 0, 1)": "Boiling point",
  "(13, 1, 1)": "87.302 K ​(−185.848 °C, ​−302.526 °F) ",
  "(14, 0, 1)": "Density  (at STP)",
  "(14, 1, 1)": "1.784 g/L",
  "(15, 0, 1)": "when liquid (at  b.p.) ",
  "(15, 1, 1)": "1.3954 g/cm 3",
  "(16, 0, 1)": "Triple point",
  "(16, 1, 1)": "83.8058 K, ​68.89 kPa ",
  "(17, 0, 1)": "Critical point",
  "(17, 1, 1)": "150.687 K, 4.863 MPa ",
  "(18, 0, 1)": "Heat of fusion",
  "(18, 1, 1)": "1.18 kJ/mol ",
  "(19, 0, 1)": "Heat of vaporization",
  "(19, 1, 1)": "6.53 kJ/mol ",
  "(20, 0, 1)": "Molar heat capacity",
  "(20, 1, 1)": "20.85 J/(mol·K) ",
  "(21, 0, 1)": "Oxidation states",
  "(21, 1, 1)": "0",
  "(22, 0, 1)": "Electronegativity",
  "(22, 1, 1)": "Pauling scale: no data ",
  "(23, 0, 1)": "Ionization energies",
  "(23, 1, 1)": "1st: 1520.6 kJ/mol ",
  "(23, 2, 1)": "2nd: 2665.8 kJ/mol ",
  "(23, 3, 1)": "3rd: 3931 kJ/mol ",
  "(23, 4, 1)": "(more) ",
  "(24, 0, 1)": "Covalent radius",
  "(24, 1, 1)": "106±10 pm ",
  "(25, 0, 1)": "Van der Waals radius",
  "(25, 1, 1)": "188 pm ",
  "(26, 0, 1)": "Natural occurrence",
  "(26, 1, 1)": "primordial",
  "(27, 0, 1)": "Speed of sound",
  "(27, 1, 1)": "323 m/s (gas, at 27 °C)",
  "(28, 0, 1)": "Thermal conductivity",
  "(28, 1, 1)": "17.72 ×10 − 3  W/(m·K)  ",
  "(29, 0, 1)": "Magnetic ordering",
  "(29, 1, 1)": "diamagnetic ",
  "(30, 0, 1)": "Magnetic susceptibility",
  "(30, 1, 1)": "−19.6·10 −6 cm 3/mol ",
  "(31, 0, 1)": "CAS Number",
  "(31, 1, 1)": "7440-37-1 ",
  "(32, 0, 1)": "Discovery and first isolation",
  "(32, 1, 1)": "Lord Rayleigh and William Ramsay (1894)"
}