{
  "(0, 0, 2)": "Europium",
  "(1, 0, 1)": "Pronunciation",
  "(1, 1, 1)": "/j ro pi m/  (yoor-OH-pee- m)",
  "(2, 0, 1)": "Appearance",
  "(2, 1, 1)": "silvery white, with a pale yellow tint; but rarely seen without oxide discoloration",
  "(3, 0, 1)": "Standard atomic weight Ar, std(Eu)",
  "(3, 1, 1)": "151.964(1)",
  "(4, 0, 1)": "Atomic number (Z)",
  "(4, 1, 1)": "63",
  "(5, 0, 1)": "Group",
  "(5, 1, 1)": "group n/a",
  "(6, 0, 1)": "Period",
  "(6, 1, 1)": "period 6",
  "(7, 0, 1)": "Block",
  "(7, 1, 1)": "f-block",
  "(8, 0, 1)": "Element category",
  "(8, 1, 1)": "Lanthanide",
  "(9, 0, 1)": "Electron configuration",
  "(9, 1, 1)": "[Xe] 4f7 6s2",
  "(10, 0, 1)": "Electrons per shell",
  "(10, 1, 1)": "2, 8, 18, 25, 8, 2",
  "(11, 0, 1)": "Phase at STP",
  "(11, 1, 1)": "solid",
  "(12, 0, 1)": "Melting point",
  "(12, 1, 1)": "1099 K  (826 C,  1519 F)",
  "(13, 0, 1)": "Boiling point",
  "(13, 1, 1)": "1802 K  (1529 C,  2784 F)",
  "(14, 0, 1)": "Density (near r.t.)",
  "(14, 1, 1)": "5.264 g/cm3",
  "(15, 0, 1)": "when liquid (at m.p.)",
  "(15, 1, 1)": "5.13 g/cm3",
  "(16, 0, 1)": "Heat of fusion",
  "(16, 1, 1)": "9.21 kJ/mol",
  "(17, 0, 1)": "Heat of vaporization",
  "(17, 1, 1)": "176 kJ/mol",
  "(18, 0, 1)": "Molar heat capacity",
  "(18, 1, 1)": "27.66 J/(mol K)",
  "(19, 0, 1)": "Oxidation states",
  "(19, 1, 1)": "+1, +2, +3 (a mildly basic oxide)",
  "(20, 0, 1)": "Electronegativity",
  "(20, 1, 1)": "Pauling scale: 1.2",
  "(21, 0, 1)": "Ionization energies",
  "(21, 1, 1)": "1st: 547.1 kJ/mol",
  "(21, 2, 1)": "2nd: 1085 kJ/mol",
  "(21, 3, 1)": "3rd: 2404 kJ/mol",
  "(22, 0, 1)": "Atomic radius",
  "(22, 1, 1)": "empirical: 180 pm",
  "(23, 0, 1)": "Natural occurrence",
  "(23, 1, 1)": "primordial",
  "(24, 0, 1)": "Thermal expansion",
  "(24, 1, 1)": "poly: 35.0 m/(m K) (at r.t.)",
  "(25, 0, 1)": "Thermal conductivity",
  "(25, 1, 1)": "est. 13.9 W/(m K)",
  "(26, 0, 1)": "Electrical resistivity",
  "(26, 1, 1)": "poly: 0.900 m (at r.t.)",
  "(27, 0, 1)": "Magnetic ordering",
  "(27, 1, 1)": "paramagnetic",
  "(28, 0, 1)": "Magnetic susceptibility",
  "(28, 1, 1)": "+34,000.0 10 6 cm3/mol",
  "(29, 0, 1)": "Young's modulus",
  "(29, 1, 1)": "18.2 GPa",
  "(30, 0, 1)": "Shear modulus",
  "(30, 1, 1)": "7.9 GPa",
  "(31, 0, 1)": "Bulk modulus",
  "(31, 1, 1)": "8.3 GPa",
  "(32, 0, 1)": "Poisson ratio",
  "(32, 1, 1)": "0.152",
  "(33, 0, 1)": "Vickers hardness",
  "(33, 1, 1)": "165-200 MPa",
  "(34, 0, 1)": "CAS Number",
  "(34, 1, 1)": "7440-53-1",
  "(35, 0, 1)": "Naming",
  "(35, 1, 1)": "after Europe",
  "(36, 0, 1)": "Discovery and first isolation",
  "(36, 1, 1)": "Eug ne-Anatole Demar ay (1896, 1901)"
}