{
  "(0, 0, 2)": "Fluorine",
  "(1, 0, 1)": "Pronunciation",
  "(1, 1, 1)": "/ˈflʊəriːn, -ɪn, -aɪn/",
  "(1, 2, 1)": "/ˈflɔːriːn, -ɪn, -aɪn/",
  "(1, 3, 1)": "(FLOR-een, -⁠in, -⁠yn)",
  "(2, 0, 1)": "Allotropes",
  "(2, 1, 1)": "alpha, beta",
  "(3, 0, 1)": "Appearance",
  "(3, 1, 1)": "gas: very pale yellow",
  "(3, 2, 1)": "liquid: bright yellow",
  "(3, 3, 1)": "solid: alpha is opaque, beta is transparent",
  "(4, 0, 1)": "Standard atomic weight Ar, std(F)",
  "(4, 1, 1)": "18.998403163(6)",
  "(5, 0, 1)": "Atomic number (Z)",
  "(5, 1, 1)": "9",
  "(6, 0, 1)": "Group",
  "(6, 1, 1)": "group 17 (halogens)",
  "(7, 0, 1)": "Period",
  "(7, 1, 1)": "period 2",
  "(8, 0, 1)": "Block",
  "(8, 1, 1)": "p-block",
  "(9, 0, 1)": "Element category",
  "(9, 1, 1)": "Reactive nonmetal",
  "(10, 0, 1)": "Electron configuration",
  "(10, 1, 1)": "[He] 2s2 2p5",
  "(11, 0, 1)": "Electrons per shell",
  "(11, 1, 1)": "2, 7",
  "(12, 0, 1)": "Phase at STP",
  "(12, 1, 1)": "gas",
  "(13, 0, 1)": "Melting point",
  "(13, 1, 1)": "(F2) 53.48 K ​(−219.67 °C, ​−363.41 °F)",
  "(14, 0, 1)": "Boiling point",
  "(14, 1, 1)": "(F2) 85.03 K ​(−188.11 °C, ​−306.60 °F)",
  "(15, 0, 1)": "Density (at STP)",
  "(15, 1, 1)": "1.696 g/L",
  "(16, 0, 1)": "when liquid (at b.p.)",
  "(16, 1, 1)": "1.505 g/cm3",
  "(17, 0, 1)": "Triple point",
  "(17, 1, 1)": "53.48 K, ​90 kPa",
  "(18, 0, 1)": "Critical point",
  "(18, 1, 1)": "144.41 K, 5.1724 MPa",
  "(19, 0, 1)": "Heat of vaporization",
  "(19, 1, 1)": "6.51 kJ/mol",
  "(20, 0, 1)": "Molar heat capacity",
  "(20, 1, 1)": "Cp: 31 J/(mol·K) (at 21.1 °C)",
  "(20, 2, 1)": "Cv: 23 J/(mol·K) (at 21.1 °C)",
  "(21, 0, 1)": "Oxidation states",
  "(21, 1, 1)": "−1 (oxidizes oxygen)",
  "(22, 0, 1)": "Electronegativity",
  "(22, 1, 1)": "Pauling scale: 3.98",
  "(23, 0, 1)": "Ionization energies",
  "(23, 1, 1)": "1st: 1681 kJ/mol",
  "(23, 2, 1)": "2nd: 3374 kJ/mol",
  "(23, 3, 1)": "3rd: 6147 kJ/mol",
  "(23, 4, 1)": "(more)",
  "(24, 0, 1)": "Covalent radius",
  "(24, 1, 1)": "64 pm",
  "(25, 0, 1)": "Van der Waals radius",
  "(25, 1, 1)": "135 pm",
  "(26, 0, 1)": "Natural occurrence",
  "(26, 1, 1)": "primordial",
  "(27, 0, 1)": "Thermal conductivity",
  "(27, 1, 1)": "0.02591 W/(m·K)",
  "(28, 0, 1)": "Magnetic ordering",
  "(28, 1, 1)": "diamagnetic (−1.2×10−4)",
  "(29, 0, 1)": "CAS Number",
  "(29, 1, 1)": "7782-41-4",
  "(30, 0, 1)": "Naming",
  "(30, 1, 1)": "after the mineral fluorite, itself named after Latin fluo (to flow, in smelting)",
  "(31, 0, 1)": "Discovery",
  "(31, 1, 1)": "André-Marie Ampère (1810)",
  "(32, 0, 1)": "First isolation",
  "(32, 1, 1)": "Henri Moissan (June 26, 1886)",
  "(33, 0, 1)": "Named by",
  "(33, 1, 1)": "Humphry Davy"
}