{
  "(0, 0, 2)": "Potassium",
  "(1, 0, 1)": "Pronunciation",
  "(1, 1, 1)": "/pəˈtæsiəm/​(pə-TAS-ee-əm)",
  "(2, 0, 1)": "Appearance",
  "(2, 1, 1)": "silvery gray",
  "(3, 0, 1)": "Standard atomic weightAr, std(K)",
  "(3, 1, 1)": "39.0983(1)",
  "(4, 0, 1)": "Atomic number (Z)",
  "(4, 1, 1)": "19",
  "(5, 0, 1)": "Group",
  "(5, 1, 1)": "group 1: H and alkali metals",
  "(6, 0, 1)": "Period",
  "(6, 1, 1)": "period 4",
  "(7, 0, 1)": "Block",
  "(7, 1, 1)": "s-block",
  "(8, 0, 1)": "Element category",
  "(8, 1, 1)": "Alkali metal",
  "(9, 0, 1)": "Electron configuration",
  "(9, 1, 1)": "[Ar] 4s1",
  "(10, 0, 1)": "Electrons per shell",
  "(10, 1, 1)": "2, 8, 8, 1",
  "(11, 0, 1)": "Phase at STP",
  "(11, 1, 1)": "solid",
  "(12, 0, 1)": "Melting point",
  "(12, 1, 1)": "336.7 K ​(63.5 °C, ​146.3 °F)",
  "(13, 0, 1)": "Boiling point",
  "(13, 1, 1)": "1032 K ​(759 °C, ​1398 °F)",
  "(14, 0, 1)": "Density (near r.t.)",
  "(14, 1, 1)": "0.862 g/cm3",
  "(15, 0, 1)": "when liquid (at m.p.)",
  "(15, 1, 1)": "0.828 g/cm3",
  "(16, 0, 1)": "Critical point",
  "(16, 1, 1)": "2223 K, 16 MPa",
  "(17, 0, 1)": "Heat of fusion",
  "(17, 1, 1)": "2.33 kJ/mol",
  "(18, 0, 1)": "Heat of vaporization",
  "(18, 1, 1)": "76.9 kJ/mol",
  "(19, 0, 1)": "Molar heat capacity",
  "(19, 1, 1)": "29.6 J/(mol·K)",
  "(20, 0, 1)": "Oxidation states",
  "(20, 1, 1)": "−1, +1 (a strongly basic oxide)",
  "(21, 0, 1)": "Electronegativity",
  "(21, 1, 1)": "Pauling scale: 0.82",
  "(22, 0, 1)": "Ionization energies",
  "(22, 1, 1)": "1st: 418.8 kJ/mol",
  "(22, 2, 1)": "2nd: 3052 kJ/mol",
  "(22, 3, 1)": "3rd: 4420 kJ/mol",
  "(22, 4, 1)": "(more)",
  "(23, 0, 1)": "Atomic radius",
  "(23, 1, 1)": "empirical: 227 pm",
  "(24, 0, 1)": "Covalent radius",
  "(24, 1, 1)": "203±12 pm",
  "(25, 0, 1)": "Van der Waals radius",
  "(25, 1, 1)": "275 pm",
  "(26, 0, 1)": "Natural occurrence",
  "(26, 1, 1)": "primordial",
  "(27, 0, 1)": "Speed of sound thin rod",
  "(27, 1, 1)": "2000 m/s (at 20 °C)",
  "(28, 0, 1)": "Thermal expansion",
  "(28, 1, 1)": "83.3 µm/(m·K) (at 25 °C)",
  "(29, 0, 1)": "Thermal conductivity",
  "(29, 1, 1)": "102.5 W/(m·K)",
  "(30, 0, 1)": "Electrical resistivity",
  "(30, 1, 1)": "72 nΩ·m (at 20 °C)",
  "(31, 0, 1)": "Magnetic ordering",
  "(31, 1, 1)": "paramagnetic",
  "(32, 0, 1)": "Magnetic susceptibility",
  "(32, 1, 1)": "+20.8·10−6 cm3/mol (298 K)",
  "(33, 0, 1)": "Young's modulus",
  "(33, 1, 1)": "3.53 GPa",
  "(34, 0, 1)": "Shear modulus",
  "(34, 1, 1)": "1.3 GPa",
  "(35, 0, 1)": "Bulk modulus",
  "(35, 1, 1)": "3.1 GPa",
  "(36, 0, 1)": "Mohs hardness",
  "(36, 1, 1)": "0.4",
  "(37, 0, 1)": "Brinell hardness",
  "(37, 1, 1)": "0.363 MPa",
  "(38, 0, 1)": "CAS Number",
  "(38, 1, 1)": "7440-09-7",
  "(39, 0, 1)": "Discovery and first isolation",
  "(39, 1, 1)": "Humphry Davy (1807)"
}