{
  "(0, 0, 2)": "Terbium",
  "(1, 0, 1)": "Pronunciation",
  "(1, 1, 1)": "/ t rbi m/  (TUR-bee- m)",
  "(2, 0, 1)": "Appearance",
  "(2, 1, 1)": "silvery white",
  "(3, 0, 1)": "Standard atomic weight Ar, std(Tb)",
  "(3, 1, 1)": "158.925354(8)",
  "(4, 0, 1)": "Atomic number (Z)",
  "(4, 1, 1)": "65",
  "(5, 0, 1)": "Group",
  "(5, 1, 1)": "group n/a",
  "(6, 0, 1)": "Period",
  "(6, 1, 1)": "period 6",
  "(7, 0, 1)": "Block",
  "(7, 1, 1)": "f-block",
  "(8, 0, 1)": "Element category",
  "(8, 1, 1)": "Lanthanide",
  "(9, 0, 1)": "Electron configuration",
  "(9, 1, 1)": "[Xe] 4f9 6s2",
  "(10, 0, 1)": "Electrons per shell",
  "(10, 1, 1)": "2, 8, 18, 27, 8, 2",
  "(11, 0, 1)": "Phase at STP",
  "(11, 1, 1)": "solid",
  "(12, 0, 1)": "Melting point",
  "(12, 1, 1)": "1629 K  (1356 C,  2473 F)",
  "(13, 0, 1)": "Boiling point",
  "(13, 1, 1)": "3396 K  (3123 C,  5653 F)",
  "(14, 0, 1)": "Density (near r.t.)",
  "(14, 1, 1)": "8.23 g/cm3",
  "(15, 0, 1)": "when liquid (at m.p.)",
  "(15, 1, 1)": "7.65 g/cm3",
  "(16, 0, 1)": "Heat of fusion",
  "(16, 1, 1)": "10.15 kJ/mol",
  "(17, 0, 1)": "Heat of vaporization",
  "(17, 1, 1)": "391 kJ/mol",
  "(18, 0, 1)": "Molar heat capacity",
  "(18, 1, 1)": "28.91 J/(mol K)",
  "(19, 0, 1)": "Oxidation states",
  "(19, 1, 1)": "0, +1, +2, +3, +4 (a weakly basic oxide)",
  "(20, 0, 1)": "Electronegativity",
  "(20, 1, 1)": "Pauling scale: 1.2 (?)",
  "(21, 0, 1)": "Ionization energies",
  "(21, 1, 1)": "1st: 565.8 kJ/mol",
  "(21, 2, 1)": "2nd: 1110 kJ/mol",
  "(21, 3, 1)": "3rd: 2114 kJ/mol",
  "(22, 0, 1)": "Atomic radius",
  "(22, 1, 1)": "empirical: 177 pm",
  "(23, 0, 1)": "Covalent radius",
  "(23, 1, 1)": "194 5 pm",
  "(24, 0, 1)": "Natural occurrence",
  "(24, 1, 1)": "primordial",
  "(25, 0, 1)": "Speed of sound thin rod",
  "(25, 1, 1)": "2620 m/s (at 20 C)",
  "(26, 0, 1)": "Thermal expansion",
  "(26, 1, 1)": "at r.t.  , poly: 10.3 m/(m K)",
  "(27, 0, 1)": "Thermal conductivity",
  "(27, 1, 1)": "11.1 W/(m K)",
  "(28, 0, 1)": "Electrical resistivity",
  "(28, 1, 1)": ", poly: 1.150 m (at r.t.)",
  "(29, 0, 1)": "Magnetic ordering",
  "(29, 1, 1)": "paramagnetic at 300 K",
  "(30, 0, 1)": "Magnetic susceptibility",
  "(30, 1, 1)": "+146,000 10 6 cm3/mol (273 K)",
  "(31, 0, 1)": "Young's modulus",
  "(31, 1, 1)": "form: 55.7 GPa",
  "(32, 0, 1)": "Shear modulus",
  "(32, 1, 1)": "form: 22.1 GPa",
  "(33, 0, 1)": "Bulk modulus",
  "(33, 1, 1)": "form: 38.7 GPa",
  "(34, 0, 1)": "Poisson ratio",
  "(34, 1, 1)": "form: 0.261",
  "(35, 0, 1)": "Vickers hardness",
  "(35, 1, 1)": "450 865 MPa",
  "(36, 0, 1)": "Brinell hardness",
  "(36, 1, 1)": "675 1200 MPa",
  "(37, 0, 1)": "CAS Number",
  "(37, 1, 1)": "7440-27-9",
  "(38, 0, 1)": "Naming",
  "(38, 1, 1)": "after Ytterby (Sweden), where it was mined",
  "(39, 0, 1)": "Discovery and first isolation",
  "(39, 1, 1)": "Carl Gustaf Mosander (1843)"
}