{
  "(0, 0)": "noble gas (data page)",
  "(1, 0)": "atomic property",
  "(1, 1)": "helium",
  "(1, 2)": "neon",
  "(1, 3)": "argon",
  "(1, 4)": "krypton",
  "(1, 5)": "xenon",
  "(1, 6)": "radon",
  "(2, 0)": "atomic number",
  "(2, 1)": "2",
  "(2, 2)": "10",
  "(2, 3)": "18",
  "(2, 4)": "36",
  "(2, 5)": "54",
  "(2, 6)": "86",
  "(3, 0)": "relative atomic mass",
  "(3, 1)": "4.002602 (2)",
  "(3, 2)": "20.1797 (6)",
  "(3, 3)": "39.948 (1)",
  "(3, 4)": "83.80 (1)",
  "(3, 5)": "131.29 (2)",
  "(3, 6)": "(222)",
  "(4, 0)": "number of natural s isotope",
  "(4, 1)": "2",
  "(4, 2)": "3",
  "(4, 3)": "3",
  "(4, 4)": "6",
  "(4, 5)": "9",
  "(4, 6)": "(1)",
  "(5, 0)": "outer shell electron configuration",
  "(5, 1)": "1s 2",
  "(5, 2)": "2s 2 2p 6",
  "(5, 3)": "3s 2 3p 6",
  "(5, 4)": "4s 2 4p 6",
  "(5, 5)": "5s 2 5p 6",
  "(5, 6)": "6s 2 6p 6",
  "(6, 0)": "atomic radius ( pm )",
  "(6, 1)": "130",
  "(6, 2)": "160",
  "(6, 3)": "192",
  "(6, 4)": "198",
  "(6, 5)": "218",
  "(6, 6)": "-",
  "(7, 0)": "ionization energy (kj / mol)",
  "(7, 1)": "2372",
  "(7, 2)": "2080",
  "(7, 3)": "1520",
  "(7, 4)": "1351",
  "(7, 5)": "1170",
  "(7, 6)": "1037",
  "(8, 0)": "static polarizability (å 3 )",
  "(8, 1)": "0.204",
  "(8, 2)": "0.392",
  "(8, 3)": "1.63",
  "(8, 4)": "2.465",
  "(8, 5)": "4.01",
  "(8, 6)": "-",
  "(9, 0)": "average valence electron energy (avee)",
  "(9, 1)": "4.16",
  "(9, 2)": "4.79",
  "(9, 3)": "3.24",
  "(9, 4)": "2.97",
  "(9, 5)": "2.58",
  "(9, 6)": "-"
}